HEADER
"PSFversion" "1.00"
"simulator" "HSPICE"
"version" "O-2018.09 linux64"
"rundate" "14:05:00 03/06/2020"
"runtitle" "** generated for: hspiced                                                       "
"runtype" "Summary Information"
"op point time" "0.00"
"op point iterations" "6"
"ac time" "0.00"
"ac iterations" "201"
"total cpu time" "0.07"
"node value" "complete"
"operating point" "invalid"
"ac analysis" "complete"
"dc sweep" "invalid"
"transient analysis" "invalid"
TRAILER
END
